ITEM: TIMESTEP
0
ITEM: NUMBER OF ATOMS
384
ITEM: BOX BOUNDS pp pp pp
0.0000000000000000e+00 2.0000000000000000e+01
0.0000000000000000e+00 2.0000000000000000e+01
-1.0000000000000001e-01 1.0000000000000001e-01
ITEM: ATOMS id type xs ys zs
1 1 0.0270648 0.0223435 0.5
2 1 0.110546 0.054855 0.5
3 1 0.18778 0.998585 0.5
4 1 0.314243 0.00889912 0.5
5 1 0.364949 0.00870299 0.5
6 1 0.429077 0.021207 0.5
7 1 0.525493 0.0109392 0.5
8 1 0.643935 0.0163028 0.5
9 1 0.708131 0.0247826 0.5
10 1 0.755941 0.0153979 0.5
11 1 0.892603 0.00984558 0.5
12 1 0.983174 0.0214174 0.5
13 1 0.0368528 0.105117 0.5
14 1 0.0818595 0.0912467 0.5
15 1 0.194846 0.0947203 0.5
16 1 0.280353 0.121099 0.5
17 1 0.361223 0.0912737 0.5
18 1 0.462652 0.109085 0.5
19 1 0.546592 0.109614 0.5
20 1 0.628038 0.0890003 0.5
21 1 0.71715 0.0896437 0.5
22 1 0.77224 0.0779313 0.5
23 1 0.928824 0.0998235 0.5
24 1 0.980696 0.101485 0.5
25 1 0.00550124 0.140618 0.5
26 1 0.0588411 0.153088 0.5
27 1 0.23232 0.181084 0.5
28 1 0.278121 0.170777 0.5
29 1 0.376568 0.181669 0.5
30 1 0.433433 0.176375 0.5
31 1 0.539768 0.175559 0.5
32 1 0.627506 0.179287 0.5
33 1 0.719155 0.195829 0.5
34 1 0.81592 0.17507 0.5
35 1 0.928816 0.184378 0.5
36 1 0.975252 0.18401 0.5
37 1 0.00252404 0.271558 0.5
38 1 0.0853078 0.268418 0.5
39 1 0.203858 0.298817 0.5
40 1 0.250095 0.320475 0.5
41 1 0.338696 0.272717 0.5
42 1 0.469599 0.269556 0.5
43 1 0.530095 0.275973 0.5
44 1 0.62769 0.268828 0.5
45 1 0.696023 0.258156 0.5
46 1 0.822543 0.257247 0.5
47 1 0.869742 0.256903 0.5
48 1 0.959603 0.288774 0.5
49 1 0.00679062 0.371284 0.5
50 1 0.096692 0.360641 0.5
51 1 0.155998 0.37498 0.5
52 1 0.25543 0.369874 0.5
53 1 0.352747 0.35509 0.5
54 1 0.453661 0.352932 0.5
55 1 0.544836 0.350352 0.5
56 1 0.603 0.345568 0.5
57 1 0.705827 0.359974 0.5
58 1 0.688494 0.309956 0.5
59 1 0.874764 0.348752 0.5
60 1 0.968319 0.342811 0.5
61 1 0.0152397 0.475054 0.5
62 1 0.0901202 0.413632 0.5
63 1 0.180537 0.432444 0.5
64 1 0.280366 0.418647 0.5
65 1 0.349848 0.413268 0.5
66 1 0.448302 0.454136 0.5
67 1 0.509248 0.422194 0.5
68 1 0.627902 0.440435 0.5
69 1 0.720444 0.453005 0.5
70 1 0.807035 0.426595 0.5
71 1 0.89836 0.46276 0.5
72 1 0.96419 0.459075 0.5
73 1 0.0223387 0.537094 0.5
74 1 0.0764423 0.543719 0.5
75 1 0.181554 0.569834 0.5
76 1 0.271689 0.531028 0.5
77 1 0.369632 0.540618 0.5
78 1 0.453871 0.531824 0.5
79 1 0.512762 0.565686 0.5
80 1 0.639087 0.565765 0.5
81 1 0.726013 0.547735 0.5
82 1 0.807091 0.555083 0.5
83 1 0.883943 0.517556 0.5
84 1 0.96847 0.551998 0.5
85 1 0.0204178 0.630999 0.5
86 1 0.0756102 0.631066 0.5
87 1 0.186392 0.617188 0.5
88 1 0.283067 0.627949 0.5
89 1 0.385997 0.613556 0.5
90 1 0.457092 0.615774 0.5
91 1 0.52659 0.643985 0.5
92 1 0.61477 0.652454 0.5
93 1 0.717031 0.627771 0.5
94 1 0.808949 0.628954 0.5
95 1 0.882519 0.626638 0.5
96 1 0.96985 0.646052 0.5
97 1 0.0296573 0.677926 0.5
98 1 0.0901295 0.709436 0.5
99 1 0.15917 0.708474 0.5
100 1 0.254296 0.707998 0.5
101 1 0.352653 0.715033 0.5
102 1 0.456928 0.714222 0.5
103 1 0.530325 0.69175 0.5
104 1 0.651961 0.690263 0.5
105 1 0.710108 0.711828 0.5
106 1 0.806174 0.690281 0.5
107 1 0.899819 0.713445 0.5
108 1 0.942729 0.687787 0.5
109 1 0.988279 0.801565 0.5
110 1 0.105919 0.787258 0.5
111 1 0.206908 0.783103 0.5
112 1 0.260891 0.80781 0.5
113 1 0.358939 0.81173 0.5
114 1 0.453961 0.794667 0.5
115 1 0.519151 0.836332 0.5
116 1 0.662101 0.825032 0.5
117 1 0.709805 0.809129 0.5
118 1 0.82597 0.839143 0.5
119 1 0.905585 0.790284 0.5
120 1 0.944118 0.815035 0.5
121 1 0.988051 0.893874 0.5
122 1 0.0999298 0.916392 0.5
123 1 0.193906 0.894118 0.5
124 1 0.261491 0.895572 0.5
125 1 0.369031 0.872264 0.5
126 1 0.460693 0.903359 0.5
127 1 0.561162 0.886869 0.5
128 1 0.630802 0.908186 0.5
129 1 0.70286 0.890896 0.5
130 1 0.797582 0.920837 0.5
131 1 0.877606 0.880913 0.5
132 1 0.943228 0.885775 0.5
133 1 0.00990866 0.982552 0.5
134 1 0.0987703 0.009952 0.5
135 1 0.184052 0.947119 0.5
136 1 0.31648 0.961144 0.5
137 1 0.368277 0.962162 0.5
138 1 0.474326 0.987871 0.5
139 1 0.54075 0.958391 0.5
140 1 0.629349 0.959186 0.5
141 1 0.722432 0.972996 0.5
142 1 0.81613 0.965404 0.5
143 1 0.913092 0.965859 0.5
144 1 0.962083 0.976826 0.5
145 1 0.556556 0.057542 0.5
146 1 0.507814 0.217942 0.5
147 1 0.0617865 0.203905 0.5
148 1 0.354652 0.226272 0.5
149 1 0.389338 0.453589 0.5
150 1 0.885685 0.399626 0.5
151 1 0.231342 0.859245 0.5
152 1 0.530254 0.466986 0.5
153 1 0.63075 0.489213 0.5
154 1 0.764424 0.371397 0.5
155 1 0.0735047 0.753626 0.5
156 1 0.3145 0.505205 0.5
157 1 0.764014 0.598564 0.5
158 1 0.76882 0.775838 0.5
159 1 0.926416 0.322285 0.5
160 1 0.269855 0.994564 0.5
161 1 0.66561 0.525668 0.5
162 1 0.918409 0.263339 0.5
163 1 0.751199 0.416734 0.5
164 1 0.10267 0.963124 0.5
165 1 0.738824 0.281435 0.5
166 1 0.510412 0.0746122 0.5
167 1 0.998862 0.937251 0.5
168 1 0.26955 0.946129 0.5
169 1 0.406211 0.799125 0.5
170 1 0.35353 0.655588 0.5
171 1 0.876352 0.108748 0.5
172 1 0.928974 0.424218 0.5
173 1 0.161219 0.323513 0.5
174 1 0.864127 0.0641853 0.5
175 1 0.0961599 0.465356 0.5
176 1 0.146349 0.97475 0.5
177 1 0.68879 0.581258 0.5
178 1 0.117726 0.509304 0.5
179 1 0.0510603 0.444282 0.5
180 1 0.146802 0.118879 0.5
181 1 0.26054 0.222115 0.5
182 1 0.188359 0.194608 0.5
183 1 0.952225 0.228849 0.5
184 1 0.738678 0.850262 0.5
185 1 0.482597 0.156246 0.5
186 1 0.674862 0.976281 0.5
187 1 0.228604 0.557709 0.5
188 1 0.872623 0.831228 0.5
189 1 0.172571 0.521311 0.5
190 1 0.772466 0.46152 0.5
191 1 0.554164 0.735929 0.5
192 1 0.147724 0.216477 0.5
193 1 0.104191 0.178491 0.5
194 1 0.622407 0.857441 0.5
195 1 0.578454 0.448042 0.5
196 1 0.784417 0.872481 0.5
197 1 0.0322859 0.817804 0.5
198 1 0.655023 0.353188 0.5
199 1 0.412863 0.412333 0.5
200 1 0.765769 0.178848 0.5
201 1 0.233956 0.0265707 0.5
202 1 0.273968 0.477804 0.5
203 1 0.749191 0.910241 0.5
204 1 0.102452 0.225259 0.5
205 1 0.635511 0.782649 0.5
206 1 0.771341 0.129261 0.5
207 1 0.337925 0.048914 0.5
208 1 0.842829 0.482927 0.5
209 1 0.568608 0.498506 0.5
210 1 0.136927 0.625709 0.5
211 1 0.787604 0.291087 0.5
212 1 0.216899 0.401291 0.5
213 1 0.589242 0.770157 0.5
214 1 0.869984 0.674305 0.5
215 1 0.851056 0.721451 0.5
216 1 0.910064 0.0561457 0.5
217 1 0.146439 0.0230161 0.5
218 1 0.931277 0.500374 0.5
219 1 0.858705 0.927451 0.5
220 1 0.307178 0.217604 0.5
221 1 0.131138 0.747151 0.5
222 1 0.503079 0.732832 0.5
223 1 0.0704213 0.875732 0.5
224 1 0.855608 0.436123 0.5
225 1 0.387124 0.0504874 0.5
226 1 0.457142 0.220041 0.5
227 1 0.325487 0.173686 0.5
228 1 0.834316 0.131818 0.5
229 1 0.495003 0.93996 0.5
230 1 0.957959 0.0608294 0.5
231 1 0.192707 0.477925 0.5
232 1 0.750653 0.234957 0.5
233 1 0.13569 0.554573 0.5
234 1 0.821121 0.0850124 0.5
235 1 0.703847 0.145307 0.5
236 1 0.370774 0.761832 0.5
237 1 0.83894 0.303286 0.5
238 1 0.0601244 0.941785 0.5
239 1 0.232768 0.635212 0.5
240 1 0.930856 0.749786 0.5
241 1 0.619267 0.729809 0.5
242 1 0.416481 0.271088 0.5
243 1 0.304626 0.671813 0.5
244 1 0.401153 0.365726 0.5
245 1 0.799991 0.505361 0.5
246 1 0.579925 0.296297 0.5
247 1 0.249035 0.758134 0.5
248 1 0.986973 0.709042 0.5
249 1 0.951672 0.931821 0.5
250 1 0.231018 0.506135 0.5
251 1 0.191086 0.0461322 0.5
252 1 0.0468878 0.395656 0.5
253 1 0.426327 0.076647 0.5
254 1 0.15247 0.0727809 0.5
255 1 0.413471 0.92411 0.5
256 1 0.291516 0.264567 0.5
257 1 0.000408795 0.224727 0.5
258 1 0.617007 0.393563 0.5
259 1 0.149406 0.166682 0.5
260 1 0.023893 0.860133 0.5
261 1 0.671949 0.461061 0.5
262 1 0.0658993 0.0488617 0.5
263 1 0.806241 0.340231 0.5
264 1 0.693713 0.408817 0.5
265 1 0.027544 0.771521 0.5
266 1 0.419052 0.873674 0.5
267 1 0.13406 0.428651 0.5
268 1 0.417774 0.65122 0.5
269 1 0.175288 0.663672 0.5
270 1 0.509425 0.888158 0.5
271 1 0.0216124 0.183198 0.5
272 1 0.862589 0.974166 0.5
273 1 0.548309 0.60107 0.5
274 1 0.858917 0.563222 0.5
275 1 0.918317 0.556442 0.5
276 1 0.0339784 0.907273 0.5
277 1 0.299343 0.864052 0.5
278 1 0.468816 0.0493886 0.5
279 1 0.980831 0.598481 0.5
280 1 0.200832 0.735201 0.5
281 1 0.767801 0.959788 0.5
282 1 0.605806 0.529778 0.5
283 1 0.404865 0.223275 0.5
284 1 0.584648 0.979547 0.5
285 1 0.705034 0.498997 0.5
286 1 0.235162 0.131701 0.5
287 1 0.847684 0.0212557 0.5
288 1 0.588292 0.574439 0.5
289 1 0.0430239 0.248016 0.5
290 1 0.846681 0.213935 0.5
291 1 0.795742 0.218357 0.5
292 1 0.148338 0.914076 0.5
293 1 0.0528535 0.300516 0.5
294 1 0.802535 0.0130023 0.5
295 1 0.907828 0.142658 0.5
296 1 0.205477 0.352419 0.5
297 1 0.311046 0.08688 0.5
298 1 0.724351 0.760921 0.5
299 1 0.859963 0.783852 0.5
300 1 0.126075 0.828979 0.5
301 1 0.978352 0.755972 0.5
302 1 0.914364 0.850969 0.5
303 1 0.869584 0.171076 0.5
304 1 0.806913 0.741491 0.5
305 1 0.176479 0.2588 0.5
306 1 0.41943 0.746831 0.5
307 1 0.354245 0.137187 0.5
308 1 0.227184 0.974468 0.5
309 1 0.131154 0.264512 0.5
310 1 0.161941 0.860441 0.5
311 1 0.310389 0.816288 0.5
312 1 0.189774 0.142477 0.5
313 1 0.302876 0.315326 0.5
314 1 0.0774906 0.827201 0.5
315 1 0.498308 0.318522 0.5
316 1 0.593871 0.13181 0.5
317 1 0.226349 0.927048 0.5
318 1 0.0576332 0.988245 0.5
319 1 0.645912 0.61369 0.5
320 1 0.461186 0.845723 0.5
321 1 0.461072 0.403744 0.5
322 1 0.558606 0.229121 0.5
323 1 0.416885 0.571254 0.5
324 1 0.760377 0.723511 0.5
325 1 0.906614 0.917797 0.5
326 1 0.896786 0.217784 0.5
327 1 0.279763 0.0474383 0.5
328 1 0.2153 0.233666 0.5
329 1 0.00213439 0.424547 0.5
330 1 0.470716 0.665775 0.5
331 1 0.360154 0.49113 0.5
332 1 0.955483 0.141252 0.5
333 1 0.886212 0.30057 0.5
334 1 0.101842 0.589067 0.5
335 1 0.595451 0.028252 0.5
336 1 0.404251 0.136115 0.5
337 1 0.67184 0.213997 0.5
338 1 0.814145 0.789796 0.5
339 1 0.305642 0.91301 0.5
340 1 0.752231 0.506044 0.5
341 1 0.922316 0.369572 0.5
342 1 0.0433734 0.585661 0.5
343 1 0.937388 0.0166443 0.5
344 1 0.977173 0.848388 0.5
345 1 0.117408 0.874148 0.5
346 1 0.244477 0.271752 0.5
347 1 0.499553 0.371801 0.5
348 1 0.157766 0.792321 0.5
349 1 0.101917 0.132368 0.5
350 1 0.499746 0.781632 0.5
351 1 0.241332 0.0792804 0.5
352 1 0.303519 0.722182 0.5
353 1 0.980259 0.506344 0.5
354 1 0.00979513 0.0656273 0.5
355 1 0.676335 0.756096 0.5
356 1 0.343584 0.591078 0.5
357 1 0.743989 0.328264 0.5
358 1 0.111951 0.667686 0.5
359 1 0.0339182 0.725171 0.5
360 1 0.235002 0.448115 0.5
361 1 0.319669 0.454324 0.5
362 1 0.399381 0.697638 0.5
363 1 0.831234 0.887189 0.5
364 1 0.964385 0.392386 0.5
365 1 0.546255 0.792388 0.5
366 1 0.419938 0.973127 0.5
367 1 0.0492635 0.347394 0.5
368 1 0.779829 0.823662 0.5
369 1 0.929106 0.607156 0.5
370 1 0.836842 0.384726 0.5
371 1 0.517019 0.515485 0.5
372 1 0.00872607 0.318615 0.5
373 1 0.758457 0.669045 0.5
374 1 0.271783 0.581188 0.5
375 1 0.418584 0.319331 0.5
376 1 0.112469 0.31082 0.5
377 1 0.195748 0.828266 0.5
378 1 0.558666 0.400887 0.5
379 1 0.582416 0.69136 0.5
380 1 0.305247 0.368585 0.5
381 1 0.371225 0.307591 0.5
382 1 0.585897 0.82275 0.5
383 1 0.314614 0.553589 0.5
384 1 0.352497 0.917853 0.5
ITEM: TIMESTEP
10000
ITEM: NUMBER OF ATOMS
384
ITEM: BOX BOUNDS pp pp pp
0.0000000000000000e+00 2.0000000000000000e+01
0.0000000000000000e+00 2.0000000000000000e+01
-1.0000000000000001e-01 1.0000000000000001e-01
ITEM: ATOMS id type xs ys zs
1 1 0.0620047 0.0508432 0.333218
2 1 0.159239 0.0729012 0.555173
3 1 0.23603 0.990597 0.640118
4 1 0.365796 0.967807 0.250238
5 1 0.426364 0.986045 0.642058
6 1 0.481047 0.981298 0.321035
7 1 0.558884 0.0391483 0.892368
8 1 0.644866 0.00885415 0.707533
9 1 0.710365 0.0703819 0.652743
10 1 0.703526 0.0223377 0.261424
11 1 0.905193 0.013574 0.706209
12 1 0.00781748 0.0368241 0.265963
13 1 0.0350301 0.140399 0.501367
14 1 0.0770691 0.0991937 0.287513
15 1 0.273088 0.0942667 0.763328
16 1 0.34056 0.153039 0.312342
17 1 0.364562 0.0619156 0.464714
18 1 0.468598 0.0838675 0.39497
19 1 0.588123 0.137243 0.156088
20 1 0.664004 0.0582849 0.307689
21 1 0.680377 0.121033 0.494974
22 1 0.752495 0.0356204 0.638692
23 1 0.931149 0.124083 0.595752
24 1 0.981253 0.131214 0.883261
25 1 0.00185448 0.182593 0.54215
26 1 0.0886303 0.153915 0.79375
27 1 0.301993 0.190579 0.788532
28 1 0.360513 0.203666 0.247215
29 1 0.443637 0.17108 0.323242
30 1 0.479539 0.134503 0.518411
31 1 0.557137 0.18164 0.587988
32 1 0.637877 0.154389 0.424376
33 1 0.743319 0.173667 0.498671
34 1 0.786421 0.135793 0.484305
35 1 0.920052 0.272492 0.776448
36 1 0.966678 0.223722 0.836971
37 1 0.883596 0.31376 0.464409
38 1 0.0909793 0.358445 0.366248
39 1 0.239616 0.321496 0.0246728
40 1 0.276877 0.287041 0.776773
41 1 0.373098 0.254458 0.479289
42 1 0.523771 0.232931 0.360296
43 1 0.591173 0.286843 0.399696
44 1 0.626636 0.246191 0.574477
45 1 0.688554 0.31467 0.41925
46 1 0.857679 0.19974 0.110609
47 1 0.812196 0.23798 0.489416
48 1 0.988053 0.336653 0.403965
49 1 0.0418653 0.349432 0.917374
50 1 0.0479519 0.406713 0.51331
51 1 0.166692 0.416456 0.52859
52 1 0.297585 0.335723 0.352229
53 1 0.345017 0.346731 0.492134
54 1 0.455793 0.358744 0.980335
55 1 0.556468 0.325687 0.0367917
56 1 0.747411 0.32135 0.59613
57 1 0.66777 0.404397 0.839936
58 1 0.734199 0.268459 0.949463
59 1 0.818351 0.387699 0.926782
60 1 0.0302201 0.296253 0.517
61 1 0.984424 0.490919 0.545111
62 1 0.137329 0.460384 0.0757337
63 1 0.225628 0.418412 0.684582
64 1 0.273822 0.436499 0.298838
65 1 0.363757 0.392821 0.0437686
66 1 0.432245 0.451962 0.270594
67 1 0.562083 0.375743 0.603747
68 1 0.632545 0.439074 0.265903
69 1 0.7106 0.508469 0.907507
70 1 0.763105 0.372618 0.704925
71 1 0.790885 0.475831 0.261712
72 1 0.931587 0.477145 0.772616
73 1 0.00382245 0.549945 0.532747
74 1 0.0200868 0.451563 0.519597
75 1 0.167149 0.561478 0.232438
76 1 0.317957 0.544286 0.67852
77 1 0.420537 0.552077 0.38924
78 1 0.451449 0.501005 0.62188
79 1 0.535 0.561229 0.462802
80 1 0.638399 0.585114 0.228144
81 1 0.745422 0.604705 0.88059
82 1 0.814574 0.533269 0.648048
83 1 0.912095 0.567433 0.392096
84 1 0.945926 0.529828 0.345596
85 1 0.0241132 0.598815 0.202009
86 1 0.0856971 0.593879 0.830468
87 1 0.24125 0.622792 0.477889
88 1 0.357221 0.638158 0.770283
89 1 0.445431 0.598569 0.583204
90 1 0.496914 0.604991 0.325281
91 1 0.554873 0.61017 0.294431
92 1 0.602977 0.627523 0.599802
93 1 0.757631 0.676728 0.943904
94 1 0.842622 0.646894 0.503535
95 1 0.878587 0.60746 0.654262
96 1 0.985087 0.633419 0.484772
97 1 0.0543928 0.636825 0.192003
98 1 0.158214 0.667028 0.497751
99 1 0.18884 0.612275 0.457336
100 1 0.323932 0.670538 0.22801
101 1 0.380383 0.680804 0.252369
102 1 0.483121 0.699037 0.744357
103 1 0.544633 0.714213 0.107324
104 1 0.63603 0.678727 0.233293
105 1 0.685402 0.682035 0.506078
106 1 0.856299 0.71254 0.523105
107 1 0.96293 0.729525 0.262568
108 1 0.947065 0.676991 0.491898
109 1 0.027948 0.792431 0.521501
110 1 0.103517 0.718989 0.669005
111 1 0.26323 0.757092 0.411958
112 1 0.272508 0.807072 0.871727
113 1 0.371295 0.776807 0.944323
114 1 0.465899 0.797865 0.0667106
115 1 0.54657 0.855482 0.326273
116 1 0.685337 0.829367 0.792876
117 1 0.730913 0.780814 0.466474
118 1 0.793388 0.852205 0.547919
119 1 0.928207 0.775473 0.56537
120 1 0.97539 0.784487 0.742838
121 1 0.00962333 0.887743 0.162703
122 1 0.11321 0.913279 0.550691
123 1 0.197278 0.88177 0.259299
124 1 0.29211 0.85811 0.284802
125 1 0.374888 0.826848 0.289169
126 1 0.499893 0.897808 0.206847
127 1 0.600814 0.864063 0.792096
128 1 0.60818 0.912697 0.816839
129 1 0.66673 0.924278 0.233841
130 1 0.808345 0.905058 0.48761
131 1 0.90862 0.875105 0.726693
132 1 0.95774 0.88023 0.320703
133 1 0.039397 0.997316 0.74008
134 1 0.148942 0.0183201 0.570873
135 1 0.213221 0.93212 0.749606
136 1 0.360615 0.915106 0.388985
137 1 0.413827 0.934537 0.404456
138 1 0.537302 0.993145 0.248553
139 1 0.575285 0.954728 0.611683
140 1 0.631108 0.959555 0.901216
141 1 0.724999 0.928494 0.593146
142 1 0.772601 0.942021 0.428382
143 1 0.942227 0.973105 0.207848
144 1 0.987218 0.99114 0.477387
145 1 0.574835 0.0852245 0.400139
146 1 0.573631 0.235079 0.680467
147 1 0.0996069 0.211169 0.862151
148 1 0.428075 0.259674 0.0534296
149 1 0.372393 0.446178 0.495893
150 1 0.776046 0.420786 0.750141
151 1 0.242446 0.85155 0.75333
152 1 0.510125 0.372932 0.695879
153 1 0.544936 0.467304 0.566517
154 1 0.718406 0.415611 0.734787
155 1 0.104487 0.650088 0.434475
156 1 0.351637 0.500858 0.639765
157 1 0.788006 0.639248 0.426214
158 1 0.793063 0.795362 0.322892
159 1 0.917041 0.426633 0.795257
160 1 0.318294 0.957523 0.750952
161 1 0.623712 0.53533 0.484127
162 1 0.783878 0.275506 0.501593
163 1 0.688515 0.455289 0.587933
164 1 0.128962 0.964792 0.681914
165 1 0.714216 0.215389 0.266145
166 1 0.52452 0.0783312 0.185339
167 1 0.0280836 0.950752 0.957108
168 1 0.30853 0.906794 0.405697
169 1 0.417951 0.784365 0.201188
170 1 0.415895 0.642578 0.392419
171 1 0.875745 0.113246 0.557942
172 1 0.839407 0.489669 0.54855
173 1 0.179193 0.317271 0.407025
174 1 0.863493 0.0526426 0.405458
175 1 0.078544 0.460235 0.152872
176 1 0.187662 0.97514 0.518514
177 1 0.710915 0.64188 0.986101
178 1 0.158261 0.507035 0.258175
179 1 0.995378 0.392322 0.433816
180 1 0.182488 0.125147 0.717711
181 1 0.25781 0.227766 0.476366
182 1 0.246661 0.180247 0.356279
183 1 0.834138 0.285252 0.353029
184 1 0.703949 0.881975 0.361534
185 1 0.533559 0.126924 0.712448
186 1 0.685548 0.971699 0.879861
187 1 0.277431 0.578241 0.376916
188 1 0.890473 0.827509 0.310334
189 1 0.222422 0.564544 0.642972
190 1 0.725146 0.554468 0.485904
191 1 0.561963 0.759443 0.109507
192 1 0.148005 0.222812 0.66448
193 1 0.135704 0.173508 0.459278
194 1 0.650588 0.872403 0.532416
195 1 0.579964 0.427615 0.866477
196 1 0.844125 0.862047 0.467806
197 1 0.0776857 0.808726 0.230719
198 1 0.653891 0.354938 0.480092
199 1 0.416117 0.406249 0.341484
200 1 0.728046 0.124496 0.567776
201 1 0.290035 0.000948185 0.446737
202 1 0.302102 0.491115 0.393723
203 1 0.756593 0.890938 0.985322
204 1 0.111395 0.258964 0.545322
205 1 0.66801 0.78055 0.323026
206 1 0.763394 0.0863052 0.655808
207 1 0.387565 0.0178081 0.499159
208 1 0.760363 0.515032 0.879409
209 1 0.519268 0.426489 0.864596
210 1 0.135135 0.605361 0.675806
211 1 0.761531 0.224683 0.662955
212 1 0.24529 0.368075 0.414871
213 1 0.615914 0.773225 0.299348
214 1 0.911956 0.71688 0.299093
215 1 0.813713 0.595715 0.665611
216 1 0.912691 0.0725575 0.561426
217 1 0.197926 0.0306184 0.98435
218 1 0.887988 0.514652 0.37308
219 1 0.884366 0.962044 0.10732
220 1 0.409554 0.213024 0.767822
221 1 0.158775 0.726727 0.317206
222 1 0.514604 0.758182 0.352241
223 1 0.093579 0.861822 0.280365
224 1 0.738268 0.462664 0.895661
225 1 0.455067 0.0236638 0.544766
226 1 0.504322 0.181418 0.517501
227 1 0.391386 0.165153 0.921399
228 1 0.817925 0.0942181 0.5598
229 1 0.519245 0.946635 0.60217
230 1 0.964933 0.0855732 0.7296
231 1 0.207944 0.514367 0.149294
232 1 0.682729 0.25724 0.553378
233 1 0.0981595 0.507473 0.147838
234 1 0.808874 0.0433244 0.877647
235 1 0.69189 0.171859 0.0735303
236 1 0.393611 0.734642 0.73524
237 1 0.900553 0.363747 0.546502
238 1 0.0787 0.958165 0.259291
239 1 0.294352 0.629075 0.171742
240 1 0.0117328 0.742389 0.687025
241 1 0.601518 0.720721 0.229328
242 1 0.48145 0.273616 0.697954
243 1 0.292882 0.713191 0.308323
244 1 0.40127 0.352641 0.330189
245 1 0.773274 0.562923 0.613213
246 1 0.640109 0.299406 0.570986
247 1 0.236811 0.710299 0.207876
248 1 0.996048 0.69416 0.863945
249 1 0.978693 0.93607 0.333863
250 1 0.260245 0.53216 0.390843
251 1 0.246108 0.0453458 0.602848
252 1 0.112405 0.416122 0.294213
253 1 0.417178 0.0710075 0.307361
254 1 0.215487 0.081534 0.261718
255 1 0.444513 0.884075 0.397942
256 1 0.310523 0.239984 0.453306
257 1 0.0148724 0.238074 0.598307
258 1 0.609544 0.339824 0.568233
259 1 0.189401 0.174351 0.0548437
260 1 0.0466578 0.850581 0.808858
261 1 0.656569 0.493534 0.661534
262 1 0.113561 0.0585785 0.46364
263 1 0.8011 0.326366 0.788347
264 1 0.603185 0.477704 0.465269
265 1 0.123726 0.768772 0.35295
266 1 0.427383 0.837563 0.0370261
267 1 0.195889 0.45921 0.674775
268 1 0.468612 0.648523 0.36858
269 1 0.264019 0.669649 0.792167
270 1 0.558787 0.902633 0.725654
271 1 0.0483764 0.197291 0.914678
272 1 0.823784 0.955158 0.452687
273 1 0.515913 0.508854 0.190509
274 1 0.858385 0.562627 0.676874
275 1 0.959117 0.584516 0.335863
276 1 0.0648486 0.906476 0.629194
277 1 0.324066 0.816115 0.384431
278 1 0.503416 0.0273645 0.753208
279 1 0.926624 0.624567 0.377326
280 1 0.210453 0.661119 0.473743
281 1 0.738868 0.980322 0.175413
282 1 0.572544 0.521145 0.61207
283 1 0.469392 0.226112 0.67993
284 1 0.594588 0.000265648 0.641247
285 1 0.67174 0.540245 0.344414
286 1 0.282971 0.145281 0.659871
287 1 0.847233 0.00446167 0.583053
288 1 0.589053 0.573661 0.671136
289 1 0.062721 0.252877 0.347357
290 1 0.915224 0.219757 0.457976
291 1 0.800126 0.185879 0.192752
292 1 0.162214 0.925956 0.513668
293 1 0.9818 0.280397 0.433445
294 1 0.790689 0.99466 0.600506
295 1 0.899613 0.169953 0.533261
296 1 0.195305 0.362177 0.84713
297 1 0.325439 0.103278 0.7791
298 1 0.719608 0.727338 0.228121
299 1 0.840056 0.814963 0.233198
300 1 0.174291 0.785712 0.827581
301 1 0.062422 0.745742 0.31537
302 1 0.941927 0.827021 0.521239
303 1 0.841709 0.15168 0.537912
304 1 0.877533 0.77098 0.366943
305 1 0.166639 0.267597 0.542431
306 1 0.459893 0.745908 0.628729
307 1 0.377802 0.112354 0.303594
308 1 0.266029 0.949661 0.391934
309 1 0.128919 0.306146 0.74546
310 1 0.188168 0.830821 0.198623
311 1 0.315024 0.765582 0.37794
312 1 0.233705 0.13307 0.0746985
313 1 0.331579 0.292103 0.427444
314 1 0.130347 0.828796 0.0042062
315 1 0.53831 0.277668 0.442607
316 1 0.630845 0.0958934 0.47624
317 1 0.259764 0.900743 0.202793
318 1 0.0898317 0.00788758 0.663824
319 1 0.659974 0.631856 0.817678
320 1 0.480064 0.848345 0.400294
321 1 0.466036 0.410018 0.481929
322 1 0.605014 0.198927 0.00175908
323 1 0.483026 0.556016 0.509901
324 1 0.777197 0.735788 0.112122
325 1 0.927377 0.923235 0.229646
326 1 0.86847 0.249029 0.539307
327 1 0.339042 0.0119455 0.411066
328 1 0.207595 0.221498 0.437357
329 1 0.947854 0.381737 0.629523
330 1 0.522052 0.656507 0.557944
331 1 0.402888 0.494499 0.309272
332 1 0.951374 0.172736 0.171218
333 1 0.871295 0.404472 0.166997
334 1 0.0579513 0.552714 0.528162
335 1 0.608499 0.0474921 0.368019
336 1 0.429995 0.119828 0.595758
337 1 0.658739 0.206513 0.704416
338 1 0.828678 0.757671 0.232752
339 1 0.343825 0.866715 0.0762655
340 1 0.689527 0.588193 0.120577
341 1 0.830076 0.439279 0.445924
342 1 0.0330094 0.502191 0.541029
343 1 0.953975 0.0290313 0.275238
344 1 0.992298 0.838951 0.442926
345 1 0.150877 0.875048 0.835526
346 1 0.220119 0.274757 0.433468
347 1 0.494707 0.323106 0.708103
348 1 0.205078 0.748813 0.435298
349 1 0.123609 0.117535 0.540321
350 1 0.524309 0.811824 0.662171
351 1 0.308408 0.0537086 0.186898
352 1 0.340529 0.717522 0.452577
353 1 0.968431 0.444712 0.94898
354 1 0.0219401 0.0916035 0.682828
355 1 0.658473 0.728985 0.266988
356 1 0.386982 0.596763 0.00805517
357 1 0.711396 0.36048 0.133481
358 1 0.116199 0.552526 0.645096
359 1 0.0471503 0.690992 0.488013
360 1 0.248064 0.479009 0.505502
361 1 0.326263 0.434077 0.489986
362 1 0.433086 0.693897 0.457165
363 1 0.862283 0.911536 0.597802
364 1 0.875933 0.455664 0.366295
365 1 0.58388 0.8124 0.358604
366 1 0.467447 0.934273 0.330428
367 1 0.0768669 0.310166 0.673878
368 1 0.736892 0.832493 0.403873
369 1 0.8901 0.665127 0.379156
370 1 0.848711 0.346981 0.552809
371 1 0.484091 0.462228 0.249065
372 1 0.944479 0.319989 0.893796
373 1 0.807028 0.693817 0.529015
374 1 0.334242 0.592894 0.649489
375 1 0.445021 0.30923 0.60243
376 1 0.145471 0.357009 0.145255
377 1 0.222681 0.796501 0.563956
378 1 0.612373 0.390021 0.354095
379 1 0.578974 0.671683 0.53327
380 1 0.304036 0.38523 0.232574
381 1 0.395497 0.301478 0.725622
382 1 0.635556 0.826561 0.474753
383 1 0.369672 0.550325 0.629241
384 1 0.395076 0.871276 0.498688
